[
    {
        "name": "Water",
        "description": "The amount of fresh water in the world is only about 2 percent",
        "formula": "H 2 O"
    },
    {
        "name": "Sulfuric acid",
        "description": "Sulfuric acid is used in car batteries",
        "formula": "H 2 S O 4"
    },
    {
        "name": "Nitric acid",
        "description": "Nitric acid is one of the strongest acids",
        "formula": "H N O 3"
    },
    {
        "name": "Nitrous acid",
        "description": "The diluted nitrous acid solution has a bluish tint",
        "formula": "H N O 2"
    },
    {
        "name": "Sulfurous acid",
        "description": "Sulphurous acid is unstable. In air, it breaks down into water and sulfur dioxide",
        "formula": "H 2 S O 3"
    },
    {
        "name": "Hydrogen",
        "description": "Hydrogen is 14.5 times lighter than air. This is the lightest gas",
        "formula": "H 2"
    },
    {
        "name": "Chlorine",
        "description": "Chlorine is a greenish yellow poisonous gas",
        "formula": "Cl 2"
    },
    {
        "name": "Bromine",
        "description": "Bromine is the only non-metal that is liquid at room temperature",
        "formula": "Br 2"
    },
    {
        "name": "Hydrogen chloride",
        "description": "The concentration of hydrochloric acid in the human stomach is 0.3-0.5%",
        "formula": "H Cl"
    },
    {
        "name": "Hydrogen bromide",
        "description": "Hydrogen bromide is thermally very stable; at a temperature of 1832°F, about 0.5% of the molecules decompose",
        "formula": "H Br"
    },
    {
        "name": "Sodium hydroxide (caustic soda)",
        "description": "Sodium hydroxide is used in the manufacture of soaps",
        "formula": "Na O H"
    },
    {
        "name": "Potassium hydroxide (caustic potash)",
        "description": "When working with potassium hydroxide, use protection to prevent chemical burns",
        "formula": "K O H"
    },
    {
        "name": "Lithium hydroxide",
        "description": "Lithium hydroxide was used as a carbon dioxide absorber in gas masks",
        "formula": "Li O H"
    },
    {
        "name": "Barium hydroxide",
        "description": "Barium hydroxide is toxic, the threshold limit value is 0.5 mg / m³",
        "formula": "Ba ( O H ) 2"
    },
    {
        "name": "Sulfur",
        "description": "Sulfur gas is a gas with a characteristic pungent odor of an igniting match",
        "formula": "S O 2"
    },
    {
        "name": "Sulfur trioxide",
        "description": "Sulfur trioxide is used in the production of sulfuric acid",
        "formula": "S O 3"
    },
    {
        "name": "Nitric oxide",
        "description": "Nitric oxide helps maintain vascular homeostasis, causing relaxation of the smooth muscles of the vessel walls",
        "formula": "N O"
    },
    {
        "name": "Nitrogen dioxide",
        "description": "Nitrogen dioxide is a poisonous gas of red-brown color",
        "formula": "N O 2"
    },
    {
        "name": "Dinitrogen pentoxide",
        "description": "Dinitrogen pentoxide oxide interacts with organic substances and polymers, so it is stored in a glass container",
        "formula": "N 2 O 5"
    },
    {
        "name": "Lithium oxide",
        "description": "The melting point of lithium oxide is 2858°F",
        "formula": "Li 2 O"
    }
]
